data_global
_chemical_name_mineral 'Quartz'
loop_
_publ_author_name
'Levien L'
'Prewitt C T'
'Weidner D J'
_journal_name_full 'American Mineralogist'
_journal_volume 65 
_journal_year 1980
_journal_page_first 920
_journal_page_last 930
_publ_section_title
;
 Structure and elastic properties of quartz at pressure
 P = 1 atm
 Positions and abc values original to Levien et al
;
_database_code_amcsd 0000789
_chemical_formula_sum 'Si O2'
_cell_length_a 4.916
_cell_length_b 4.916
_cell_length_c 5.4054
_cell_angle_alpha 90
_cell_angle_beta 90
_cell_angle_gamma 120
_symmetry_space_group_name_H-M 'P 32 2 1'
loop_
_space_group_symop_operation_xyz
  'x,y,z'
  'y,x,2/3-z'
  '-y,x-y,2/3+z'
  '-x,-x+y,1/3-z'
  '-x+y,-x,1/3+z'
  'x-y,-y,-z'
loop_
_atom_site_label
_atom_site_fract_x
_atom_site_fract_y
_atom_site_fract_z
Si   0.4697   0.0000   0.0000
O    0.4135   0.2669   0.1191
