#------------------------------------------------------------------------------
#$Date: 2013-05-05 14:21:46 +0000 (Sun, 05 May 2013) $
#$Revision: 85285 $
#$URL: file:///home/coder/svn-repositories/cod/cif/9/00/23/9002355.cif $
#------------------------------------------------------------------------------
#
# This file is available in the Crystallography Open Database (COD),
# http://www.crystallography.net/. The original data for this entry
# were provided the American Mineralogist Crystal Structure Database,
# http://rruff.geo.arizona.edu/AMS/amcsd.php
#
# The file may be used within the scientific community so long as
# proper attribution is given to the journal article from which the
# data were obtained.
#
data_9002355
loop_
_publ_author_name
'Hazen, R. M.'
'Weinberger, M. B.'
'Yang, H.'
'Prewitt, C. T.'
_publ_section_title
;
 Comparative high-pressure crystal chemistry of wadsleyite,
 beta-(Mg_1-xFe_x)2SiO4, with x=0 and 0.25
 Sample: P = 0.00 GPa, X = .00
;
_journal_name_full               'American Mineralogist'
_journal_page_first              770
_journal_page_last               777
_journal_volume                  85
_journal_year                    2000
_chemical_formula_sum            'Mg2 O4 Si'
_chemical_name_mineral           Wadsleyite
_space_group_IT_number           74
_symmetry_space_group_name_Hall  '-I 2b 2'
_symmetry_space_group_name_H-M   'I m m a'
_cell_angle_alpha                90
_cell_angle_beta                 90
_cell_angle_gamma                90
_cell_length_a                   5.6978
_cell_length_b                   11.4620
_cell_length_c                   8.2571
_cell_volume                     539.256
_diffrn_ambient_pressure         0
_exptl_crystal_density_diffrn    3.466
_[local]_cod_chemical_formula_sum_orig 'Mg2 Si O4'
_cod_database_code               9002355
loop_
_symmetry_equiv_pos_as_xyz
x,y,z
1/2+x,1/2+y,1/2+z
x,1/2-y,z
1/2+x,-y,1/2+z
-x,1/2+y,-z
1/2-x,+y,1/2-z
-x,y,z
1/2-x,1/2+y,1/2+z
x,-y,-z
1/2+x,1/2-y,1/2-z
x,1/2+y,-z
1/2+x,+y,1/2-z
-x,1/2-y,z
1/2-x,-y,1/2+z
-x,-y,-z
1/2-x,1/2-y,1/2-z
loop_
_atom_site_label
_atom_site_fract_x
_atom_site_fract_y
_atom_site_fract_z
Mg1 0.00000 0.00000 0.00000
Mg2 0.00000 0.25000 0.96980
Mg3 0.25000 0.12690 0.25000
Si 0.00000 0.11990 0.61650
O1 0.00000 0.25000 0.21820
O2 0.00000 0.25000 0.71570
O3 0.00000 0.98980 0.25650
O4 0.26010 0.12260 0.99310
