#------------------------------------------------------------------------------
#$Date: 2012-02-28 12:14:52 +0000 (Tue, 28 Feb 2012) $
#$Revision: 35911 $
#$URL: file:///home/coder/svn-repositories/cod/cif/5/00/00/5000035.cif $
#------------------------------------------------------------------------------
#
# This file is available in the Crystallography Open Database (COD),
# http://www.crystallography.net/
#
# All data on this site have been placed in the public domain by the
# contributors.
#
data_5000035
_chemical_name_systematic          'Silicon oxide'
_chemical_name_mineral             'Quartz'
_chemical_formula_structural       'Si O2'
_chemical_formula_sum              'O2 Si'
_publ_section_title
;
Data on 5 coordinated silica (called Penta) from Badro 1997
;
loop_
_journal_name_full                 'Journal of Applied Crystallography'
_journal_volume                    21
_journal_year                      1988
_journal_page_first                182
_journal_page_last                 191
_cell_length_a                     4.414
_cell_length_b                     4.414
_cell_length_c                     9.358
_cell_angle_alpha                  90
_cell_angle_beta                   90
_cell_angle_gamma                  120
_cell_formula_units_Z              6
_symmetry_space_group_name_H-M     'P 32 2 1'
_symmetry_Int_Tables_number        154
_symmetry_cell_setting             trigonal
loop_
_symmetry_equiv_pos_as_xyz
  'x,y,z'
  '-y,x-y,2/3+z'
  'y-x,-x,1/3+z'
  'y,x,-z'
  'x-y,-y,1/3-z'
  '-x,y-x,2/3-z'
loop_
_atom_type_symbol
_atom_type_oxidation_number
  Si4+   4.000
  O2-   -2.000
loop_
_atom_site_label
_atom_site_type_symbol
_atom_site_fract_x
_atom_site_fract_y
_atom_site_fract_z
_atom_site_occupancy
  Si1   Si4+ 0.5126 0.3224 0.2204 1.
  O1    O2-  0.4839 0.0761 0.0537 1.
  O2    O2-  0.8253 0.6686 0.1439 1.
_cod_database_code 5000035
